62
Lattice="11.274753716 -0.000000000 -0.000000000 0.057465311 7.298775983 -0.000000000 -0.572847726 -1.810311138 9.425812539" Energy=-455.405491 Virial="-13.50477 -3.64768 2.67290 -3.64768 5.34115 -2.68998 2.67290 -2.68998 -1.32579" Weight=1.0 Config_type=vasp_calcu Properties=species:S:1:pos:R:3:force:R:3
Ca	     10.94490     -0.45016      4.68157        -0.042410      0.163800      0.023937
Ca	      1.41440      2.76818      0.98223         0.239771     -0.221252      0.061728
Ca	      1.47678      6.41930      1.08162        -0.139928     -0.162609      0.111451
Ca	      3.66899     -0.94842      8.40597        -0.074463      0.130859      0.161805
Ca	      3.64460      2.77808      8.32858        -0.084647     -0.249179     -0.245880
Ca	      5.32849      3.19743      4.68768        -0.135147     -0.285972     -0.002808
Ca	      7.11199      2.76501      1.13168         0.053308     -0.211782     -0.021939
Ca	      7.12684      6.42816      0.98127         0.076297     -0.359682     -0.329695
Ca	      9.25443     -0.88832      8.28994        -0.026710     -0.109098     -0.075804
Ca	      9.28345      2.66015      8.43785         0.236428      0.390115      0.097916
H	      0.52746      3.14848      3.60939        -1.164878      0.550937     -0.244996
H	      4.53063     -0.43849      5.73769        -0.407424     -0.106018      0.189815
H	      6.03075     -0.47615      3.61662         1.890436     -0.566671     -0.025399
H	     10.31945      3.23757      5.88545        -1.141512     -0.500019     -0.066554
O	     10.71083      4.51919      8.34916         2.034190      0.133227     -1.435017
O	     -0.46458      0.99180      8.17945        -1.256928      0.395707      0.758120
O	     -0.04741      0.99827      1.18174        -0.899238      0.037512      0.313843
O	      0.05216      4.50432      1.30462        -1.223175      0.459294      0.468668
O	      0.55629     -0.94163      6.81627         0.410351     -0.742338      0.003812
O	      0.79759      3.86863      6.00220        -1.307593      1.818022      1.149489
O	      0.96464      1.34639      5.85458        -0.408756     -0.824279      0.424565
O	      1.40687      2.79349      3.72705         1.362014     -0.379871      0.321994
O	      1.78696      6.45204      3.62071         0.335789     -0.076949     -0.135169
O	      2.15689      0.83678      8.24718        -0.296318     -0.033472     -0.222113
O	      2.10076      4.58237      8.26863         1.894136     -0.046858      0.996179
O	      3.00171      4.53784      1.11710        -0.521015      0.477243     -0.503059
O	      2.97616      0.93667      1.19625        -0.111795     -0.097554     -0.318346
O	      3.28667      2.83936      5.79756        -0.669905     -0.218770     -0.142428
O	      3.61638     -0.83755      5.68072         0.315536      0.249875     -0.092465
O	      4.23652      0.36622      3.48828         0.397526     -0.018723      0.174170
O	      4.22211      5.05472      3.53355        -0.375901      0.630889     -0.523008
O	      4.46654      2.75467      2.53215         0.106364      0.618934      0.212392
O	      5.10592      0.90371      8.31736        -1.202543     -0.608843      0.727312
O	      5.16121      4.57971      8.16224         1.073163      0.333495     -0.813492
O	      5.68475      4.63230      1.15334        -0.915830      0.293224      0.656009
O	      5.63318      0.82092      1.22156         0.188231      0.016441     -0.210063
O	      6.27098      2.66409      6.82395         0.430753      0.649436     -0.472435
O	      6.30763      0.20928      6.02090         0.218880     -0.570756     -0.538914
O	      6.62948      4.96531      5.77683        -0.195143     -0.496624      0.316615
O	      7.07323      6.47632      3.70440        -2.421865      0.873549     -1.614494
O	      7.48150      2.74205      3.72183        -0.697213      0.438649     -0.144938
O	      7.75602      0.93364      8.27562        -0.864691     -0.125029     -0.516713
O	      7.86553      4.52559      8.26235        -1.945095     -0.246431     -1.453234
O	      8.67636      4.57639      1.20843        -1.735415     -0.212244     -0.932440
O	      8.52729      0.89222      1.14483         0.179924      0.272110     -0.131594
O	      8.88865     -0.79237      5.71614        -1.406548     -0.379464     -0.124634
O	      9.39545      2.80555      5.80968         0.778902      0.750910     -0.824948
O	      9.82587      1.42178      3.54296        -0.291889      0.672829     -0.181810
O	      9.94115      4.04116      3.52139        -0.305405     -0.072467      0.972860
O	     10.06603      6.46038      2.54952        -0.107043     -1.862202      0.678457
Si	      0.83013      4.77627      7.40191        -3.863144      0.452232     -0.025857
Si	      0.82118      0.62566      7.36096         1.690290     -0.200369     -0.699824
Si	      1.72471      2.72346      5.37629         2.252827     -0.786247     -1.320263
Si	      3.32412      6.44281      4.03567         0.195987     -0.957158      0.685351
Si	      4.30418      4.37715      1.99425         1.125334     -1.158396      0.522864
Si	      4.31397      1.17038      2.04930        -0.605512      0.410425     -0.150594
Si	      6.37108      1.09165      7.40333         1.920946      0.844811      0.263610
Si	      6.52871      4.27152      7.27877         0.367956     -0.441163      2.507630
Si	      7.31669     -0.93448      5.28350         1.906312      0.962416      1.876684
Si	      8.99772      2.82428      4.14943         1.129641     -1.629700      0.403416
Si	      9.91712      4.85522      2.10739         3.102067      0.039898     -0.491813
Si	      9.84912      0.67935      2.01734         0.931721      1.891349     -0.047953
62
Lattice="11.170460311 -0.000000000 -0.000000000 -0.110096367 7.428552410 0.000000000 -0.493597466 -1.801168502 9.467480307" Energy=-455.635652 Virial="-7.70532 3.68563 0.99549 3.68563 -17.77282 -3.31195 0.99549 -3.31195 -16.01602" Weight=1.0 Config_type=vasp_calcu Properties=species:S:1:pos:R:3:force:R:3
Ca	     10.88729     -0.43423      4.74151        -0.162127      0.024229     -0.292237
Ca	      1.38176      2.79919      0.95386         0.139157      0.302053      0.261361
Ca	      1.32776      6.55178      1.10384         0.010195     -0.321164      0.108664
Ca	      3.69724     -0.97605      8.43909         0.021320      0.282127      0.016404
Ca	      3.55780      2.84193      8.35955        -0.108799     -0.048988     -0.266945
Ca	      5.23857      3.30176      4.75090         0.068032     -0.164553     -0.463057
Ca	      6.94866      2.81264      1.13375         0.229650     -0.428070      0.227427
Ca	      6.90987      6.48620      0.99465         0.353314      0.447605     -0.115076
Ca	      9.20085     -0.86132      8.30397        -0.225090     -0.172722      0.049526
Ca	      9.16632      2.73734      8.46273         0.218237      0.473580      0.069826
H	      0.42050      3.20871      3.67940         0.886777     -0.278715     -0.234492
H	      4.57095     -0.47504      5.77214         0.540192      0.390162      0.233732
H	      5.98998     -0.43571      3.59590         1.979782     -0.594519      0.063902
H	     10.15796      3.37244      5.86404        -0.359956     -0.270981      0.175490
O	     10.54432      4.63264      8.36446        -0.093630      0.123369      0.084858
O	     10.69121      1.04172      8.21173        -1.157719      0.274882      0.819454
O	     -0.03908      1.07825      1.15721        -0.409000     -0.474565      0.436552
O	     -0.09043      4.61923      1.25098         0.924575     -0.395604     -0.640696
O	      0.65099     -0.93237      6.87439        -0.156659     -0.747944      0.222451
O	      0.68434      3.95938      6.05967         0.246498      0.027035      0.089910
O	      0.95674      1.32098      5.85993        -0.060638      0.382777      0.599871
O	      1.35346      2.81657      3.72332        -0.835624      0.716472      0.246552
O	      1.65610      6.54989      3.59545        -0.230267     -0.054950      0.156112
O	      2.16754      0.86517      8.25538         0.005405      0.140734      0.554518
O	      2.04063      4.67191      8.27561         0.108171      0.270598      0.372815
O	      2.86520      4.62656      1.14563         0.036368      0.097945     -0.435697
O	      2.91774      0.93466      1.15608        -0.106788      0.131458     -0.148406
O	      3.25308      2.85023      5.84526        -1.229098      0.112216     -0.455148
O	      3.64897     -0.79376      5.74251        -0.837370     -0.611435     -1.132155
O	      4.22101      0.41556      3.49659        -0.396626     -1.177270      0.489136
O	      4.04972      5.17627      3.47477        -0.171895      0.825198      0.994687
O	      4.41513      2.78058      2.54613        -0.220846      1.058937     -0.377234
O	      5.04319      0.96555      8.34053        -0.300011      0.015156      0.334311
O	      5.07904      4.75971      8.16049        -0.055945     -0.408164     -0.133853
O	      5.54370      4.72533      1.17643        -0.185980      0.118798     -0.064805
O	      5.58556      0.80480      1.18464        -0.824403      0.344466      0.275197
O	      6.22426      2.77732      6.81063         0.420983     -0.025432      0.463240
O	      6.30662      0.26372      6.06490         0.062368      0.284160      0.225867
O	      6.52257      5.10119      5.83263        -0.427667     -0.386481      0.569535
O	      6.85355      6.60432      3.67670        -2.017103      1.003800      0.473212
O	      7.29503      2.81931      3.75392         1.461958      0.064689      0.240801
O	      7.70244      0.96515      8.33512        -0.705426      0.379346     -0.479560
O	      7.68327      4.63840      8.29517         0.461886     -0.231133      0.084286
O	      8.44061      4.69892      1.17897        -0.171246     -0.339718     -0.070210
O	      8.50682      0.92770      1.14664        -1.430194      0.295972     -0.967726
O	      8.83412     -0.80880      5.77592        -0.086253      0.248097      0.000090
O	      9.27080      2.89618      5.83898         0.113570      0.236958     -0.881042
O	      9.71146      1.51319      3.57304         0.409509     -1.197539     -1.300155
O	      9.77308      4.13314      3.56030        -0.303183     -0.077509     -0.402616
O	      9.83649      6.56818      2.55261         0.236040     -0.908350      0.216152
Si	      0.67176      4.91284      7.47451         0.486951     -0.460283     -1.273833
Si	      0.81863      0.64499      7.43527         1.749416      0.042589     -2.426662
Si	      1.69728      2.76881      5.35730         0.338060     -0.173844      1.167171
Si	      3.16285      6.53928      4.07837         1.459729      0.187935      0.156482
Si	      4.20514      4.44912      2.00544        -0.559315     -1.706061      0.265413
Si	      4.23844      1.17876      2.03178         0.839053      0.545530      0.068050
Si	      6.34744      1.22657      7.46037         0.597040     -0.746250     -0.697277
Si	      6.42780      4.36480      7.35849        -0.592212      0.609377     -0.644188
Si	      7.29189     -0.86757      5.33242         0.555616     -0.342924     -0.014753
Si	      8.88306      2.81873      4.17972        -1.217310      0.520512     -0.229574
Si	      9.75854      4.91582      2.06088        -0.536787      0.679013      1.610691
Si	      9.79120      0.69217      1.99749         1.215315      1.087391      1.723651
62
Lattice="11.304451667 0.000000000 0.000000000 0.069095194 7.407837671 -0.000000000 -0.592926346 -1.878542187 9.348670666" Energy=-455.416780 Virial="-25.88312 -1.48722 4.86962 -1.48722 -9.97952 0.04690 4.86962 0.04690 5.29686" Weight=1.0 Config_type=vasp_calcu Properties=species:S:1:pos:R:3:force:R:3
Ca	     10.95484     -0.48464      4.62747        -0.013352     -0.234707      0.014065
Ca	      1.46650      2.81186      0.99828        -0.067027     -0.268746     -0.186356
Ca	      1.49658      6.44125      1.08799         0.036260      0.210909     -0.039256
Ca	      3.65775     -0.98767      8.35923         0.169086     -0.125474     -0.102218
Ca	      3.61325      2.77306      8.24953         0.322262     -0.122011     -0.175775
Ca	      5.37956      3.22020      4.66130        -0.032246     -0.133149      0.068288
Ca	      7.11767      2.73726      1.16453        -0.080231      0.343676     -0.294989
Ca	      7.15693      6.50023      0.94358         0.077707     -0.290791      0.035938
Ca	      9.26956     -0.95199      8.25389        -0.323937      0.218876     -0.128481
Ca	      9.33909      2.67175      8.38376        -0.303695     -0.149411     -0.137445
H	      0.52603      3.17081      3.60573         0.864200     -0.244207     -0.047174
H	      4.56381     -0.52316      5.69415        -0.646842     -0.122280      0.458906
H	      6.03830     -0.47065      3.55130         1.661040     -0.531029      0.114125
H	     10.29897      3.32155      5.80400        -0.564330     -0.265237      0.004369
O	     10.74852      4.50430      8.28919         1.152557      0.610207     -0.919047
O	     -0.48562      0.94186      8.15189         0.786148     -0.379201     -0.818091
O	     -0.04434      1.01201      1.14424         0.036508      0.109892      0.082475
O	      0.02596      4.57604      1.23206         0.554894     -0.305350     -0.154263
O	      0.59934     -1.05296      6.76699         0.093520      1.547796     -0.210300
O	      0.74981      3.91290      5.98835         0.256321     -1.096966     -0.941442
O	      0.96463      1.30084      5.79496        -0.420874     -0.620884      0.036000
O	      1.45837      2.79140      3.69682        -1.243761      0.545611     -0.532346
O	      1.85288      6.53325      3.56138         0.104567      0.013609      0.030215
O	      2.14764      0.81963      8.16127         0.615550     -0.004193      0.344859
O	      2.14835      4.57791      8.22739        -1.012732      0.579692     -0.504675
O	      2.98459      4.59642      1.10238         0.105304      0.004921     -0.123013
O	      2.93389      0.96824      1.16745         0.357727      0.033990      0.051628
O	      3.30929      2.83494      5.75271        -1.509206     -0.434957     -0.284559
O	      3.62427     -0.88859      5.66287         0.862548      0.388872     -0.847789
O	      4.27159      0.35033      3.40657        -0.053885     -1.206585      1.526513
O	      4.19115      5.09638      3.44968        -0.027231      1.260155      1.012279
O	      4.52386      2.82797      2.53247        -0.277366     -1.891835     -0.456621
O	      5.08310      0.83641      8.23035        -0.537605      0.186540      0.024537
O	      5.19274      4.64270      8.10425         0.256348      0.021522     -0.529662
O	      5.70146      4.72509      1.11388        -1.569582     -0.140442      0.977897
O	      5.62971      0.82152      1.12803        -0.844497      0.222609      0.610644
O	      6.34948      2.65884      6.75834        -0.047534      2.198221     -0.413848
O	      6.34530      0.19398      6.03046         0.286645     -1.881041     -2.581698
O	      6.64553      5.03603      5.78181        -0.250850     -0.434709     -0.080384
O	      7.06370      6.55482      3.65201        -1.804604      0.704265     -0.132241
O	      7.44726      2.76273      3.68556         2.065033     -0.030713      0.273942
O	      7.70849      0.90489      8.22428         0.477317     -0.033468     -0.032033
O	      7.81099      4.52178      8.17461         1.466672      0.346951      0.748772
O	      8.69418      4.61191      1.20248        -1.163571     -0.139268     -0.869536
O	      8.57263      0.95044      1.11349         0.885732     -0.267535      0.395489
O	      8.91111     -0.84582      5.64944        -1.459725     -0.283300      0.055712
O	      9.40589      2.86267      5.71618         0.620886      0.004948      0.479811
O	      9.89475      1.45957      3.46756        -0.016760      0.253846      0.678837
O	      9.93176      4.08803      3.56028         0.489144      0.589273     -1.375458
O	     10.09456      6.49480      2.52443         0.094421      0.991746     -0.040223
Si	      0.77674      4.82228      7.34729         0.205434     -1.114848      1.995836
Si	      0.86246      0.56614      7.28107        -1.536001     -0.321393      0.626198
Si	      1.73208      2.67594      5.31987         1.780298      1.618639      0.789245
Si	      3.38723      6.49023      4.00018        -0.218018     -0.381051      0.341322
Si	      4.31516      4.39531      1.97593         1.333413     -0.394484     -1.337027
Si	      4.29580      1.14313      2.00734         0.562405      2.087944     -1.081423
Si	      6.38030      1.12009      7.32225         0.575723      0.365057      2.541545
Si	      6.54983      4.32223      7.27479        -1.754602     -1.696454     -0.242768
Si	      7.31550     -0.98359      5.27986         1.641687      1.319797      0.332058
Si	      9.06376      2.78415      4.10144        -2.335623      0.278315     -0.697849
Si	      9.99448      4.89849      2.03037         0.097280     -0.085873      2.345458
Si	      9.92593      0.74238      1.98965        -0.778948     -1.426288     -0.678969
62
Lattice="11.285519557 -0.000000000 -0.000000000 0.034199901 7.359478158 -0.000000000 -0.535540142 -1.976611310 9.319391795" Energy=-455.378866 Virial="-10.81248 -4.69181 7.17213 -4.69181 -2.03228 7.61053 7.17213 7.61053 8.09348" Weight=1.0 Config_type=vasp_calcu Properties=species:S:1:pos:R:3:force:R:3
Ca	     11.00271     -0.47442      4.64372        -0.253735     -0.349261     -0.213418
Ca	      1.48520      2.73213      0.97588        -0.586880      0.049755     -0.044589
Ca	      1.50810      6.43464      1.09443        -0.532632     -0.142173      0.090091
Ca	      3.71394     -1.14459      8.31047        -0.248558      0.564982     -0.154848
Ca	      3.66503      2.66429      8.20583        -0.133631     -0.161139     -0.072284
Ca	      5.36337      3.14167      4.64236         0.009828      0.120240      0.210188
Ca	      7.11842      2.71263      1.09145        -0.022542      0.295471      0.080316
Ca	      7.14045      6.41192      0.93730        -0.069051      0.066712      0.136201
Ca	      9.25469     -1.01575      8.17685         0.363618     -0.110407     -0.007160
Ca	      9.30856      2.56081      8.37104         0.428181     -0.055341     -0.344305
H	      0.47838      3.09156      3.58584         1.222199     -0.228199     -0.112522
H	      4.57851     -0.55360      5.67250         0.103821      0.097158      0.290194
H	      6.07671     -0.53381      3.52162         0.058140      0.051930      0.211309
H	     10.30198      3.22828      5.76446         0.390772      0.284681      0.238680
O	     10.72070      4.39368      8.24141         1.910249      0.618889     -0.901019
O	     10.76560      0.84131      8.10289         1.761457     -0.283434     -1.017860
O	     11.19607      1.00708      1.15468         0.693413      0.092405      0.054022
O	      0.02576      4.48135      1.26738         0.158594      0.140918     -0.385152
O	      0.58203     -1.07929      6.71310         0.674914     -0.259838      0.419885
O	      0.76601      3.81798      5.98586         0.126542     -0.689975     -1.033046
O	      1.01552      1.22007      5.78749        -0.205594      0.484085     -0.752908
O	      1.43906      2.74539      3.65177        -1.329491      0.502322      0.618603
O	      1.79105      6.44777      3.57131         0.706609     -0.052363      0.009941
O	      2.14094      0.72467      8.15411         1.491878      0.086707      0.854858
O	      2.12438      4.49464      8.19109         1.215398      0.049924      0.674658
O	      3.00513      4.54441      1.08606        -0.968611      0.158034     -0.709985
O	      2.98182      0.93015      1.12991         0.068175      0.021244      0.017363
O	      3.27641      2.72948      5.73298         0.170840      0.035286      0.149813
O	      3.68113     -0.95365      5.64546        -0.356513      0.033604     -0.399027
O	      4.23712      0.29092      3.46144         0.737250      1.279922     -1.334057
O	      4.16710      5.08680      3.46550         0.517504     -1.176618     -0.582550
O	      4.50132      2.75731      2.55378        -0.495657     -0.865240     -0.383849
O	      5.06444      0.76460      8.25556         1.169740      0.290126     -0.988409
O	      5.17317      4.53704      8.07761         1.450574     -0.515725     -0.600453
O	      5.66962      4.67265      1.19200        -0.862179     -0.075349      0.373420
O	      5.62686      0.85148      1.16418         1.011145     -0.520670     -0.471512
O	      6.35897      2.60750      6.72189        -0.291963     -0.575764      0.110449
O	      6.37031      0.10863      5.98536        -0.768573     -0.215713     -1.067447
O	      6.67460      4.89403      5.78868         0.266181      1.549758     -1.310422
O	      7.02164      6.48855      3.68677        -0.195087      0.102746     -1.343458
O	      7.43336      2.74417      3.72100         1.116329     -0.269049     -0.030732
O	      7.79710      0.78808      8.14167        -1.615989      0.266996     -0.345067
O	      7.89485      4.38654      8.14278        -0.999482      0.194959      0.037205
O	      8.61839      4.58022      1.18524        -0.096494      0.077660     -0.260608
O	      8.59441      0.92536      1.14422        -1.694194     -0.001317     -0.958966
O	      8.88899     -0.86424      5.66353         0.539465      0.001103      0.208211
O	      9.43620      2.77676      5.73667        -0.750163     -0.536273     -0.377221
O	      9.82119      1.41296      3.47906         0.301158     -0.166244      0.590525
O	      9.93223      4.05258      3.55704        -0.539866     -0.575009     -0.880687
O	     10.08420      6.43992      2.57013        -0.324765      0.395238     -0.597810
Si	      0.82299      4.70960      7.33855        -3.263816      0.617750      0.779572
Si	      0.89142      0.50760      7.24956        -3.189737     -0.621722      0.988676
Si	      1.74046      2.65249      5.31804         0.380187     -0.018460     -0.981416
Si	      3.34972      6.40031      3.98256        -1.337785      0.273215      1.320701
Si	      4.27515      4.31944      1.97896         2.030607      0.255086      0.432408
Si	      4.32120      1.15080      1.98319        -1.021373      0.328427      2.128322
Si	      6.38718      1.02295      7.29572         0.764887      0.759017      2.734481
Si	      6.56754      4.19356      7.24076        -0.517198     -0.314253      1.374268
Si	      7.37252     -0.96508      5.25942        -0.213464     -1.682748      0.744312
Si	      9.01244      2.70088      4.11255        -0.673909      2.025948     -0.100544
Si	      9.95461      4.84569      2.02233         0.266809     -0.285368      2.515767
Si	      9.87651      0.69959      2.00046         1.452471     -1.424646      0.368892
62
Lattice="11.014144645 -0.000000000 -0.000000000 -0.138784962 7.344208140 -0.000000000 -0.496351932 -1.758031883 9.298462605" Energy=-455.283449 Virial="30.44385 6.51060 4.49921 6.51060 9.45617 -8.63819 4.49921 -8.63819 18.13801" Weight=1.0 Config_type=vasp_calcu Properties=species:S:1:pos:R:3:force:R:3
Ca	     10.71774     -0.40698      4.60406        -0.004596     -0.102003      0.387755
Ca	      1.39685      2.79107      0.96852        -0.649479     -0.264853     -0.011079
Ca	      1.27917      6.40434      1.10180        -0.113191      0.123081     -0.073375
Ca	      3.63199     -0.92115      8.35001        -0.153849     -0.126637     -0.208535
Ca	      3.50403      2.81718      8.19216        -0.077668      0.276551     -0.082872
Ca	      5.15488      3.21514      4.60184         0.141476     -0.051074      0.157241
Ca	      6.86244      2.76772      1.10071        -0.013654     -0.131068      0.364537
Ca	      6.82581      6.42688      0.95626        -0.123248      0.196480      0.126695
Ca	      9.03403     -0.81589      8.21382         0.290852     -0.227119     -0.134766
Ca	      9.04302      2.75784      8.31616         0.157225     -0.056393      0.074640
H	      0.41070      3.16364      3.58699         0.296291      0.084251     -0.257565
H	      4.50214     -0.45753      5.71383         0.286112      0.301936      0.110892
H	      5.92755     -0.47303      3.58872        -2.733994      1.103236     -0.463111
H	      9.98762      3.36410      5.78825        -0.989669     -0.601068     -0.023091
O	     10.38002      4.55501      8.17384        -1.363267      0.126307      0.989745
O	     10.52019      0.99685      8.05276        -0.565834      0.655104      0.439706
O	     -0.03885      1.03101      1.17483         0.976015      0.089386     -0.497996
O	     -0.07561      4.50725      1.24728        -0.993229      0.596895      0.519652
O	      0.60172     -0.89940      6.75052         0.294122     -0.111481     -0.410687
O	      0.63318      3.98203      5.93470         0.370943     -0.831810     -0.760913
O	      0.93503      1.36129      5.79887        -0.148940      0.742263     -1.595381
O	      1.33995      2.82514      3.63871        -0.132189      0.182677      1.107738
O	      1.58306      6.52087      3.57157        -0.165371     -0.276011     -0.144264
O	      2.12693      0.89019      8.15287         0.306291      0.172509      0.094639
O	      1.95024      4.65457      8.14823         1.179704      0.144892      0.666313
O	      2.76789      4.57046      1.08413        -0.121045      0.438848     -0.249083
O	      2.84464      0.98199      1.17494        -2.126893     -0.420210     -1.593921
O	      3.16918      2.85709      5.73458         0.523995      0.093675      0.334908
O	      3.57440     -0.75972      5.61728        -0.243859     -0.327403      1.003027
O	      4.11486      0.40519      3.43335         0.544310      0.637132     -0.115811
O	      3.98909      5.14363      3.48320        -0.426714      0.125169     -0.253466
O	      4.32326      2.83859      2.51562        -0.402956     -1.897432     -0.415188
O	      4.93943      0.97456      8.23225        -1.025332     -0.577388      0.709438
O	      4.97043      4.70399      8.04089        -0.916297      0.455897      0.132451
O	      5.42373      4.70416      1.16276        -0.660198     -0.070090      0.043328
O	      5.45683      0.79029      1.16261        -0.149859      0.471288     -0.056176
O	      6.06287      2.75777      6.70941         0.368038     -0.446471      0.229666
O	      6.20493      0.26552      5.90547        -0.755788      0.819431      1.324289
O	      6.40379      5.04152      5.72853        -1.068083     -1.204830      0.021087
O	      6.66787      6.57394      3.61297         3.068031     -1.082526      1.089033
O	      7.21164      2.81456      3.67332        -0.294316     -0.020676     -0.372902
O	      7.52877      0.99304      8.13783         2.064301     -0.340708      1.333532
O	      7.54672      4.59736      8.17452        -0.232094     -0.127165     -0.659244
O	      8.33703      4.62632      1.18696        -1.959248     -0.441455     -1.185645
O	      8.38243      0.92060      1.09123        -0.761032      0.355576     -0.416361
O	      8.72640     -0.81358      5.63971        -0.320195      0.166516      0.365472
O	      9.09701      2.85453      5.70438         1.102063      0.598711      0.474703
O	      9.54196      1.48354      3.47259         0.374325      0.126372      0.173816
O	      9.59421      4.13879      3.53747         0.092143     -0.051978      0.037800
O	      9.66881      6.52338      2.53881         0.032868     -1.440685      0.152774
Si	      0.62768      4.89812      7.31484         0.655097     -0.070586     -0.928532
Si	      0.83854      0.68403      7.24145        -0.240915     -1.313892      1.495473
Si	      1.65543      2.77019      5.32573        -0.848757      0.961929     -1.566676
Si	      3.10445      6.49782      4.01813        -0.063570     -0.795156     -0.369531
Si	      4.05826      4.38654      1.98131         1.373770      0.456964      0.407549
Si	      4.13097      1.18391      1.98226         2.538909      1.171541      2.220403
Si	      6.21664      1.17145      7.34783        -0.813592      1.239204     -3.180994
Si	      6.27213      4.35867      7.20451         0.808243     -1.167499      1.141655
Si	      7.16927     -0.89531      5.28713         1.878681      1.183118     -2.403512
Si	      8.74119      2.82089      4.09144        -0.281988     -0.083509     -0.155593
Si	      9.57128      4.90847      2.07725         2.844694     -0.173686      0.585866
Si	      9.66814      0.72073      1.99711        -0.627591      0.735919      0.270444
104
Lattice="6.753054624 0.000000000 0.000000000 2.666716789 6.038222811 -0.000000000 1.066922708 1.210496554 28.554227711" Energy=-662.474655 Virial="0.03456 -1.23819 -1.98879 -1.23819 17.86740 -6.75597 -1.98879 -6.75597 -19.88333" Weight=1.0 Config_type=vasp_calcu Properties=species:S:1:pos:R:3:force:R:3
Ca	      7.60999      6.22277     14.16867         0.076174     -0.017575     -0.130028
Ca	      7.97602      6.47504     22.28639         0.010903     -0.087247     -0.012770
Ca	      2.98537      5.03365      8.13148         0.296164      0.170660     -0.128928
Ca	      3.18503      3.46605     22.23244         0.116540      0.207818     -0.004831
Ca	      4.45457      6.46126     20.30269         0.196605     -0.239228      0.285457
Ca	      4.99459      1.99037      8.10984         0.174040      0.334716     -0.266693
Ca	      6.76449      3.59539     28.40283        -0.137852     -0.008140     -0.163471
Ca	      6.26343      4.97324      6.11093         0.025080      0.139118      0.124665
Ca	      6.59379      3.39067     20.11449        -0.284056      0.028129      0.143215
Ca	      1.59986      1.98069      6.07665         0.008503      0.082991      0.224231
H	      3.47839      2.72839     13.21415        -0.014286      0.637176     -0.255305
H	      4.11471      6.96071     27.79995        -0.291922      0.109994     -0.356790